FoamFile
{
    version     2.0;
    format      ascii;
    class       volScalarField;
    object      epsilonm;
}

dimensions      [0 2 -3 0 0 0 0];

internalField   uniform 1.5e-4;

boundaryField
{
  inlet
  {
      type            fixedValue;
      value           $internalField;
  }

    outlet
    {
        type            inletOutlet;
        phi             phim;
        inletValue      $internalField;
        value           $internalField;
    }

    walls
    {
        type            zeroGradient;
        value           $internalField;
    }

    defaultFaces
    {
        type            empty;
    }
    wedgeFront
    {
        type            wedge;
    }
    wedgeBack
    {
        type            wedge;
    }
    axis
    {
        type            empty;
    }
}
