FoamFile
{
    version     2.0;
    format      ascii;
    class       volScalarField;
    object      p_rgh;
}

dimensions          [1 -1 -2 0 0 0 0];

internalField       uniform 1.2e5;

boundaryField
{
    inlet
    {
        type               fixedFluxPressure;
        value              $internalField;
    }
    outlet
    {
        type               prghPressure;
        p                  $internalField;
        value              $internalField;
    }
    walls
    {
        type               fixedFluxPressure;
    }
    wedgeFront
    {
        type            wedge;
    }
    wedgeBack
    {
        type            wedge;
    }
    axis
    {
        type            empty;
    }
}
